23
/scratch/dz1061/gcn/chemGraph/data/deepchem/freesol/split/QM_opt/gjf/11.log	Energy: -173441.8180936
C         -3.03171        0.24822        0.00000
C         -1.65698       -0.43096        0.00000
C         -0.50585        0.58583       -0.00000
C          0.94209        0.02705        0.00000
C          1.20426       -0.82298        1.25881
C          1.20426       -0.82298       -1.25881
C          1.91267        1.22524       -0.00000
H         -3.16004        0.88445       -0.88452
H         -3.84234       -0.48954       -0.00000
H         -3.16004        0.88445        0.88452
H         -1.58141       -1.08523       -0.87817
H         -1.58141       -1.08523        0.87817
H         -0.62026        1.24004       -0.87777
H         -0.62026        1.24004        0.87777
H          0.57651       -1.72065        1.28462
H          1.00675       -0.24855        2.17277
H          2.24996       -1.15283        1.29300
H          1.00675       -0.24855       -2.17277
H          2.24996       -1.15283       -1.29300
H          0.57651       -1.72065       -1.28462
H          1.76513        1.85533        0.88602
H          1.76513        1.85533       -0.88603
H          2.95655        0.88783       -0.00000
