14
/scratch/dz1061/gcn/chemGraph/data/deepchem/freesol/split/QM_opt/gjf/130.log	Energy: -216850.6059322
C          2.21719       -0.25087       -0.00001
C          1.73580        1.06085       -0.00000
C          0.36121        1.29194        0.00000
C         -0.53418        0.21424        0.00001
C         -0.04512       -1.10098        0.00001
C          1.32666       -1.33110        0.00000
C         -1.99215        0.46852        0.00002
O         -2.84806       -0.39567       -0.00001
H          3.28854       -0.43319       -0.00001
H          2.42935        1.89691       -0.00001
H         -0.02488        2.30939        0.00000
H         -0.75788       -1.91977        0.00001
H          1.70697       -2.34886       -0.00000
H         -2.27403        1.54529       -0.00002
