12
/scratch/dz1061/gcn/chemGraph/data/deepchem/freesol/split/QM_opt/gjf/146.log	Energy: -145738.2271862
C         -1.22342        0.66173       -0.12845
C         -1.19279       -0.72656        0.02268
C          0.03063       -1.38829        0.15114
C          1.22342       -0.66173        0.12845
C          1.19279        0.72656       -0.02268
C         -0.03063        1.38829       -0.15114
H         -2.17553        1.17673       -0.22841
H         -2.12107       -1.29199        0.04033
H          0.05446       -2.46872        0.26874
H          2.17553       -1.17673        0.22841
H          2.12107        1.29199       -0.04033
H         -0.05446        2.46872       -0.26874
