23
/scratch/dz1061/gcn/chemGraph/data/deepchem/freesol/split/QM_opt/gjf/161.log	Energy: -324274.0864030
C         -5.27772       -0.28764        0.00000
C         -3.97411        0.51692        0.00000
C         -2.72064       -0.36728        0.00000
C         -1.41166        0.43286       -0.00000
C         -0.16426       -0.46281       -0.00000
C          1.11826        0.35861       -0.00000
O          2.20548       -0.59900       -0.00000
N          3.48984       -0.01179       -0.00000
O          3.55422        1.20228        0.00000
O          4.37874       -0.82924        0.00000
H         -5.34583       -0.93241       -0.88476
H         -5.34583       -0.93241        0.88476
H         -6.15329        0.37119        0.00000
H         -3.95112        1.17765        0.87821
H         -3.95112        1.17765       -0.87821
H         -2.74217       -1.02849       -0.87869
H         -2.74217       -1.02849        0.87869
H         -1.38932        1.09293       -0.87921
H         -1.38932        1.09293        0.87921
H         -0.17058       -1.11642        0.88105
H         -0.17058       -1.11642       -0.88105
H          1.19783        0.99423        0.88772
H          1.19783        0.99423       -0.88772
