22
/scratch/dz1061/gcn/chemGraph/data/deepchem/freesol/split/QM_opt/gjf/176.log	Energy: -2309508.6070601
C          1.52829       -0.42196       -1.78158
C          2.90196       -0.46709       -1.98656
C          3.76963       -0.32140       -0.90590
C          3.26601       -0.13141        0.39087
C          1.87264       -0.08818        0.57976
C          0.99175       -0.22787       -0.50454
C         -0.49233       -0.21649       -0.32812
C         -1.16831       -1.43217       -0.21668
C         -2.55297       -1.47830       -0.08264
C         -3.30219       -0.29382       -0.06035
C         -2.63492        0.94034       -0.17799
C         -1.23708        0.97311       -0.31327
Cl        -0.40904        2.49838       -0.47177
Cl        -3.54510        2.41905       -0.16077
Cl        -5.02820       -0.34874        0.10700
Cl        -3.32031       -3.03805        0.05399
Cl         1.22007        0.13500        2.18227
Cl         4.34731        0.04187        1.73842
Cl         5.48746       -0.38412       -1.20478
H          0.85456       -0.53254       -2.62528
H          3.31042       -0.61419       -2.97990
H         -0.60703       -2.35941       -0.22719
