17
/scratch/dz1061/gcn/chemGraph/data/deepchem/freesol/split/QM_opt/gjf/231.log	Energy: -217752.2931436
C         -1.71565        1.32470        0.38120
C         -1.35315        0.01703       -0.33570
C         -2.35890       -1.09925       -0.01693
C          0.05435       -0.45178        0.02117
O          0.99777        0.55988       -0.41379
C          2.28871        0.31418       -0.14718
O          2.72753       -0.66022        0.41378
H         -2.71170        1.66929        0.08127
H         -0.99673        2.11619        0.14957
H         -1.72547        1.18300        1.46992
H         -1.37004        0.19888       -1.41969
H         -2.12435       -2.02339       -0.55823
H         -3.37360       -0.79563       -0.29632
H         -2.36637       -1.33052        1.05592
H          0.17038       -0.59922        1.10125
H          0.30579       -1.39585       -0.47384
H          2.89746        1.15064       -0.52511
