15
/scratch/dz1061/gcn/chemGraph/data/deepchem/freesol/split/QM_opt/gjf/262.log	Energy: -123329.5291696
C          2.19918       -0.28426       -0.41098
C          1.01746       -0.18910        0.57000
C         -0.01255        0.81881        0.13273
C         -1.30578        0.61522       -0.14657
C         -2.07571       -0.67474       -0.08255
H          2.95754       -0.98780       -0.04849
H          2.68329        0.69107       -0.54237
H          1.86329       -0.62266       -1.39749
H          1.40455        0.10192        1.55831
H          0.56792       -1.17978        0.69829
H          0.36908        1.83602        0.02429
H         -1.89255        1.48065       -0.45779
H         -2.90807       -0.59809        0.63046
H         -2.52236       -0.91093       -1.05800
H         -1.45830       -1.52599        0.21699
