30
/scratch/dz1061/gcn/chemGraph/data/deepchem/freesol/split/QM_opt/gjf/289.log	Energy: -269973.2187652
C         -5.75333        0.29889        0.00000
C         -4.45891       -0.52074        0.00000
C         -3.19300        0.34583       -0.00000
C         -1.89205       -0.46696        0.00000
C         -0.62638        0.40005        0.00000
C          0.67388       -0.41383       -0.00000
C          1.93932        0.45375        0.00000
C          3.23481       -0.36661       -0.00000
C          4.48916        0.49727        0.00000
O          5.62089       -0.36855        0.00000
H         -6.63793       -0.34828       -0.00000
H         -5.81338        0.94500       -0.88461
H         -5.81338        0.94500        0.88461
H         -4.44444       -1.18226        0.87798
H         -4.44444       -1.18226       -0.87798
H         -3.20807        1.00840        0.87846
H         -3.20807        1.00840       -0.87846
H         -1.87803       -1.12937        0.87839
H         -1.87803       -1.12937       -0.87839
H         -0.64025        1.06241       -0.87848
H         -0.64025        1.06241        0.87848
H          0.68881       -1.07584        0.87834
H          0.68881       -1.07584       -0.87834
H          1.92353        1.11553       -0.87887
H          1.92353        1.11553        0.87887
H          3.26691       -1.02263       -0.87996
H          3.26691       -1.02263        0.87996
H          4.49118        1.15240       -0.88772
H          4.49118        1.15240        0.88772
H          6.41718        0.18355       -0.00000
