26
/scratch/dz1061/gcn/chemGraph/data/deepchem/freesol/split/QM_opt/gjf/292.log	Energy: -339296.0416928
C          0.00000        2.49363        0.00000
C         -0.00000        1.14772        0.00000
C          1.28222        0.38763        0.03903
C          1.41134       -0.77247        0.82246
C          2.62518       -1.45386        0.89718
C          3.73391       -0.99770        0.18119
C          3.61713        0.14500       -0.61218
C          2.40368        0.82798       -0.68402
C         -1.28222        0.38763       -0.03903
C         -2.40368        0.82798        0.68402
C         -3.61713        0.14500        0.61218
C         -3.73391       -0.99770       -0.18119
C         -2.62518       -1.45387       -0.89718
C         -1.41134       -0.77247       -0.82246
H          0.92116        3.06225        0.08322
H         -0.92116        3.06225       -0.08322
H          0.55529       -1.13260        1.38542
H          2.70537       -2.34269        1.51768
H          4.67821       -1.53291        0.23483
H          4.46949        0.50044       -1.18546
H          2.31148        1.70206       -1.32238
H         -2.31148        1.70206        1.32238
H         -4.46949        0.50044        1.18546
H         -4.67821       -1.53291       -0.23483
H         -2.70536       -2.34269       -1.51768
H         -0.55529       -1.13260       -1.38542
