18
/scratch/dz1061/gcn/chemGraph/data/deepchem/freesol/split/QM_opt/gjf/306.log	Energy: -568725.8730478
C          0.00000        2.39847        0.00000
C         -1.20788        1.70315        0.03310
C         -1.20490        0.30582        0.03142
C         -0.00000       -0.39667        0.00000
C          1.20490        0.30582       -0.03142
C          1.20788        1.70315       -0.03310
C          2.51125       -0.44433       -0.00237
F          3.47671        0.21106       -0.68337
F          2.96224       -0.60458        1.26301
F          2.39557       -1.67707       -0.54021
C         -2.51125       -0.44433        0.00237
F         -3.47671        0.21106        0.68337
F         -2.39557       -1.67707        0.54021
F         -2.96224       -0.60458       -1.26301
H          0.00000        3.48418        0.00000
H         -2.15021        2.24012        0.06483
H         -0.00000       -1.48038        0.00000
H          2.15021        2.24012       -0.06483
