26
/scratch/dz1061/gcn/chemGraph/data/deepchem/freesol/split/QM_opt/gjf/311.log	Energy: -580805.5124105
C         -0.49842        1.90873        0.33975
C         -1.85099        2.19775        0.39618
C         -2.80159        1.18814        0.17839
C         -2.34688       -0.12768       -0.09680
C         -0.96768       -0.39391       -0.14944
C         -0.02099        0.60845        0.06043
C          1.43778        0.35057       -0.02715
C          2.31163        1.28703       -0.60841
C          3.68748        1.08086       -0.68388
C          4.20957       -0.09863       -0.16687
C          3.39906       -1.06457        0.41589
C          2.03399       -0.81686        0.47325
F          1.26088       -1.75985        1.05569
F          5.53643       -0.32063       -0.23406
C         -3.34049       -1.18175       -0.32438
O         -4.56040       -1.00999       -0.28783
O         -2.82587       -2.39929       -0.58807
O         -4.10026        1.51829        0.24644
H          0.21560        2.70386        0.53622
H         -2.20621        3.19833        0.61961
H         -0.64992       -1.40568       -0.36513
H          1.89290        2.19461       -1.03240
H          4.34790        1.80855       -1.14244
H          3.81322       -1.97937        0.82295
H         -3.58989       -2.99252       -0.71371
H         -4.62196        0.69566        0.07419
