9
/scratch/dz1061/gcn/chemGraph/data/deepchem/freesol/split/QM_opt/gjf/340.log	Energy:  -97285.1770193
C          1.17308       -0.41026        0.00000
C          0.00000        0.55572        0.00000
O         -1.19896       -0.21513       -0.00000
H          2.12326        0.13552        0.00000
H          1.13853       -1.05143        0.88688
H          1.13853       -1.05143       -0.88688
H          0.05033        1.20785       -0.88760
H          0.05033        1.20785        0.88760
H         -1.94780        0.39997       -0.00000
