11
/scratch/dz1061/gcn/chemGraph/data/deepchem/freesol/split/QM_opt/gjf/342.log	Energy: -168412.3079243
C         -2.18594        0.27446       -0.00000
C         -0.69907        0.57212       -0.00000
O         -0.00000       -0.69901        0.00000
C          1.33910       -0.62945        0.00000
O          1.99977        0.38081       -0.00000
H         -2.47030       -0.29930       -0.88775
H         -2.75145        1.21261       -0.00000
H         -2.47030       -0.29930        0.88775
H         -0.39068        1.13990       -0.88363
H         -0.39068        1.13990        0.88363
H          1.75066       -1.65099        0.00000
