17
/scratch/dz1061/gcn/chemGraph/data/deepchem/freesol/split/QM_opt/gjf/357.log	Energy: -217759.0144458
C          3.28856        0.15478       -0.00001
C          1.96435       -0.61628       -0.00000
C          0.76439        0.31851        0.00000
O         -0.42898       -0.49506        0.00001
C         -1.60359        0.17691        0.00001
O         -1.68566        1.38550       -0.00001
C         -2.77090       -0.78348       -0.00001
H          3.37823        0.79590        0.88517
H          4.14085       -0.53266       -0.00001
H          3.37822        0.79590       -0.88518
H          1.90669       -1.26895       -0.87996
H          1.90670       -1.26896        0.87995
H          0.75379        0.96733        0.88307
H          0.75379        0.96734       -0.88306
H         -2.72669       -1.43098        0.88190
H         -2.72667       -1.43098       -0.88192
H         -3.70463       -0.22010       -0.00002
