16
/scratch/dz1061/gcn/chemGraph/data/deepchem/freesol/split/QM_opt/gjf/360.log	Energy: -599170.1833223
C          2.84657       -0.60337        0.33414
C          1.87310        0.51168        0.69915
S          0.58974        0.85942       -0.58694
S         -0.58974       -0.85942       -0.58694
C         -1.87310       -0.51168        0.69915
C         -2.84657        0.60337        0.33414
H          2.31779       -1.55178        0.19562
H          3.38262       -0.37119       -0.59152
H          3.58291       -0.73976        1.13606
H          1.36895        0.31062        1.64973
H          2.39039        1.47381        0.80141
H         -1.36895       -0.31062        1.64973
H         -2.39039       -1.47381        0.80141
H         -3.38262        0.37119       -0.59152
H         -2.31779        1.55178        0.19562
H         -3.58291        0.73977        1.13606
