26
/scratch/dz1061/gcn/chemGraph/data/deepchem/freesol/split/QM_opt/gjf/390.log	Energy: -198112.8427263
C          4.49937        0.25628       -0.00000
C          3.19117       -0.54152        0.00000
C          1.94012        0.34663       -0.00000
C          0.62543       -0.44430        0.00000
C         -0.62543        0.44430        0.00000
C         -1.94012       -0.34663       -0.00000
C         -3.19117        0.54152        0.00000
C         -4.49937       -0.25628       -0.00000
H          5.37293       -0.40580       -0.00000
H          4.57020        0.90119       -0.88466
H          4.57020        0.90119        0.88466
H          3.16560       -1.20244        0.87812
H          3.16560       -1.20244       -0.87812
H          1.96631        1.00854       -0.87858
H          1.96631        1.00854        0.87858
H          0.60030       -1.10607       -0.87857
H          0.60030       -1.10607        0.87857
H         -0.60030        1.10607       -0.87857
H         -0.60030        1.10607        0.87857
H         -1.96631       -1.00854        0.87858
H         -1.96631       -1.00854       -0.87858
H         -3.16560        1.20244        0.87812
H         -3.16560        1.20244       -0.87812
H         -4.57020       -0.90119        0.88466
H         -5.37293        0.40580        0.00000
H         -4.57020       -0.90119       -0.88466
