10
/scratch/dz1061/gcn/chemGraph/data/deepchem/freesol/split/QM_opt/gjf/416.log	Energy: -121178.8833950
C         -1.80752        0.03002       -0.25029
C         -0.66276       -0.29758        0.35058
C          0.60567        0.50440        0.25594
O          1.69845       -0.27319       -0.23275
H         -2.70201       -0.58050       -0.15940
H         -1.89651        0.93303       -0.85199
H         -0.59431       -1.21033        0.94287
H          0.43970        1.40346       -0.35938
H          0.92289        0.84182        1.24981
H          1.43035       -0.62305       -1.09721
