14
/scratch/dz1061/gcn/chemGraph/data/deepchem/freesol/split/QM_opt/gjf/443.log	Energy: -676234.5433313
C         -0.36946        0.67263        1.01039
C          0.36946       -0.67263        1.01039
C          1.25748       -0.94637       -0.19723
Cl         2.58493        0.29201       -0.38911
C         -1.25748        0.94637       -0.19723
Cl        -2.58493       -0.29201       -0.38911
H          0.36245        1.49040        1.05005
H         -0.97305        0.74220        1.92255
H          0.97305       -0.74220        1.92255
H         -0.36245       -1.49040        1.05005
H          1.76079       -1.90982       -0.10150
H          0.69908       -0.93795       -1.13510
H         -0.69908        0.93795       -1.13510
H         -1.76079        1.90982       -0.10150
