26
/scratch/dz1061/gcn/chemGraph/data/deepchem/freesol/split/QM_opt/gjf/476.log	Energy: -386403.4551533
C         -3.52396       -0.00000        0.00000
C         -2.83327        1.21062        0.00000
C         -1.42943        1.23664        0.00000
C         -0.68080        2.46377       -0.00000
C          0.68080        2.46377       -0.00000
C          1.42943        1.23664       -0.00000
C          2.83327        1.21062        0.00000
C          3.52396        0.00000        0.00000
C          2.83327       -1.21062       -0.00000
C          1.42943       -1.23664        0.00000
C          0.71321        0.00000       -0.00000
C         -0.71321       -0.00000        0.00000
C         -1.42943       -1.23664        0.00000
C         -2.83327       -1.21062       -0.00000
C         -0.68080       -2.46377        0.00000
C          0.68080       -2.46377        0.00000
H         -4.61069       -0.00000       -0.00000
H         -3.37968        2.15075        0.00000
H         -1.22984        3.40252        0.00000
H          1.22984        3.40252        0.00000
H          3.37968        2.15075        0.00000
H          4.61069        0.00000        0.00000
H          3.37968       -2.15075       -0.00000
H         -3.37968       -2.15075       -0.00000
H         -1.22984       -3.40252       -0.00000
H          1.22984       -3.40252       -0.00000
