7
/scratch/dz1061/gcn/chemGraph/data/deepchem/freesol/split/QM_opt/gjf/483.log	Energy:  -60148.7939738
C          0.70596        0.00000        0.01759
N         -0.75248        0.00000       -0.12602
H          1.11531       -0.88180       -0.48740
H          1.11531        0.88180       -0.48740
H          1.08619       -0.00000        1.05440
H         -1.14261       -0.81240        0.34850
H         -1.14261        0.81240        0.34850
