13
/scratch/dz1061/gcn/chemGraph/data/deepchem/freesol/split/QM_opt/gjf/504.log	Energy: -109490.2151899
C          1.92827       -0.13313        0.02178
C          0.54462        0.51861       -0.05587
C         -0.59919       -0.49399        0.02888
N         -1.89812        0.17907       -0.09434
H          2.07966       -0.84219       -0.80152
H          2.05915       -0.68461        0.96118
H          2.72493        0.61678       -0.03618
H          0.43806        1.08315       -0.99017
H          0.43738        1.24904        0.76007
H         -0.48646       -1.08732        0.95652
H         -0.51366       -1.20390       -0.80456
H         -2.64772       -0.51078       -0.07187
H         -2.04672        0.77740        0.71813
