11
/scratch/dz1061/gcn/chemGraph/data/deepchem/freesol/split/QM_opt/gjf/528.log	Energy: -363164.7804964
C         -1.82081       -0.72095        0.14460
C         -1.15477        0.56173       -0.35838
C          0.17591        0.88609        0.30944
Cl         1.46702       -0.34704       -0.06757
H         -2.78494       -0.87644       -0.35118
H         -1.19315       -1.59523       -0.05376
H         -2.00306       -0.67485        1.22527
H         -1.81375        1.42178       -0.16804
H         -1.00883        0.51523       -1.44423
H          0.57384        1.84355       -0.03195
H          0.08856        0.90440        1.39855
