22
/scratch/dz1061/gcn/chemGraph/data/deepchem/freesol/split/QM_opt/gjf/537.log	Energy: -183493.8935576
C         -2.00024        1.42966        0.43918
C         -0.78050        1.16816       -0.44693
N          0.00005        0.00002       -0.02019
C         -0.62128       -1.26001       -0.44703
C         -0.23814       -2.44705        0.43922
C          1.40191        0.09193       -0.44701
C          2.23824        1.01730        0.43926
H         -2.53044        2.32845        0.10257
H         -1.68888        1.57579        1.47862
H         -2.71490        0.59953        0.41686
H         -1.09248        1.07784       -1.50658
H         -0.12786        2.04578       -0.39775
H         -0.38686       -1.48508       -1.50662
H         -1.70762       -1.13355       -0.39809
H          0.83810       -2.65093        0.41721
H         -0.52067       -2.25042        1.47857
H         -0.75135       -3.35561        0.10252
H          1.83558       -0.91209       -0.39798
H          1.47965        0.40740       -1.50663
H          2.20866        0.67460        1.47868
H          3.28181        1.02680        0.10295
H          1.87692        2.05136        0.41681
