16
/scratch/dz1061/gcn/chemGraph/data/deepchem/freesol/split/QM_opt/gjf/607.log	Energy: -217602.2816386
C          2.76905        0.32519        0.00000
O          1.76154       -0.67214       -0.00000
C          0.45473       -0.27106       -0.00000
C          0.03254        1.06357       -0.00000
C         -1.33643        1.35162       -0.00000
C         -2.28364        0.33069        0.00000
C         -1.85179       -1.00052        0.00000
C         -0.49514       -1.30361        0.00000
H          2.71102        0.95993       -0.89448
H          3.72048       -0.21004        0.00000
H          2.71102        0.95993        0.89448
H          0.75010        1.87620       -0.00000
H         -1.65577        2.39076       -0.00000
H         -3.34424        0.56457        0.00000
H         -2.57824       -1.80909        0.00000
H         -0.14266       -2.33046        0.00000
