19
/scratch/dz1061/gcn/chemGraph/data/deepchem/freesol/split/QM_opt/gjf/112.log	Energy: -242279.2769749
C         -2.68691       -0.45430        0.71643
C         -1.81946       -0.58671       -0.54865
C         -0.34267       -0.39033       -0.28499
C          0.53858       -1.47115       -0.19187
C          1.90007       -1.29814        0.07066
C          2.40453       -0.01082        0.24405
C          1.54983        1.08887        0.15468
C          0.19051        0.89965       -0.10546
O         -0.68302        1.95535       -0.20167
H         -2.58100        0.54200        1.15655
H         -2.39519       -1.19302        1.47161
H         -3.74566       -0.61085        0.47866
H         -1.97051       -1.57919       -0.99078
H         -2.15938        0.14650       -1.28974
H          0.14264       -2.47471       -0.33330
H          2.55738       -2.16043        0.13500
H          3.46058        0.14583        0.44668
H          1.93749        2.09821        0.28681
H         -0.18905        2.78041       -0.07722
