20
/scratch/dz1061/gcn/chemGraph/data/deepchem/freesol/split/QM_opt/gjf/12.log	Energy: -336082.6927658
C         -3.21888        1.39122       -0.18747
C         -2.42873        0.11830        0.00051
O         -2.76133       -0.82351        0.68693
O         -1.27572        0.16092       -0.71192
C         -0.42760       -1.00189       -0.62835
C          0.42760       -1.00189        0.62835
O          1.27572        0.16092        0.71192
C          2.42873        0.11830       -0.00051
O          2.76133       -0.82351       -0.68693
C          3.21888        1.39122        0.18747
H         -4.14705        1.33002        0.38144
H         -2.63004        2.25015        0.15101
H         -3.43960        1.54515       -1.24871
H          0.19871       -0.96336       -1.52018
H         -1.04164       -1.90703       -0.64294
H         -0.19871       -0.96336        1.52018
H          1.04164       -1.90703        0.64294
H          2.63004        2.25015       -0.15101
H          3.43960        1.54515        1.24871
H          4.14705        1.33002       -0.38144
