32
/scratch/dz1061/gcn/chemGraph/data/deepchem/freesol/split/QM_opt/gjf/153.log	Energy: -643320.8268098
C          4.24610       -1.46805        1.02419
C          3.91743       -0.94087       -0.37684
N          3.12835        0.28158       -0.37069
C          1.77680        0.32962       -0.27085
N          1.08971       -0.82192       -0.29967
C         -0.24559       -0.66764       -0.22599
N         -0.90043        0.50929       -0.10849
C         -0.08802        1.56879       -0.08592
N          1.24002        1.56836       -0.16117
S         -0.79247        3.19215        0.06492
C         -2.57804        2.81992        0.13519
N         -0.98281       -1.80396       -0.28668
C         -2.43000       -1.88942       -0.09505
C         -2.80389       -1.94159        1.39399
C         -2.96424       -3.09839       -0.86865
H          3.32515       -1.70276        1.56682
H          4.85025       -2.38077        0.95786
H          4.80972       -0.72863        1.60472
H          3.35406       -1.69119       -0.93668
H          4.83863       -0.73448       -0.93366
H          3.58795        1.17381       -0.25299
H         -2.90766        2.31862       -0.77632
H         -3.08030        3.78665        0.22876
H         -2.81302        2.19575        0.99878
H         -0.43934       -2.65720       -0.28769
H         -2.84629       -0.97402       -0.52467
H         -3.89299       -1.96262        1.51965
H         -2.38939       -2.83838        1.87109
H         -2.41446       -1.06156        1.91454
H         -2.53824       -4.03405       -0.48212
H         -2.71950       -3.02454       -1.93325
H         -4.05234       -3.16668       -0.76723
