14
/scratch/dz1061/gcn/chemGraph/data/deepchem/freesol/split/QM_opt/gjf/226.log	Energy: -387834.6374764
C          2.99658       -0.40865        0.00000
C          1.77246        0.51313       -0.00000
C          0.44753       -0.26565       -0.00000
C         -0.75441        0.66897        0.00000
Cl        -2.32804       -0.24824        0.00000
H          3.00476       -1.05610        0.88498
H          3.00476       -1.05610       -0.88498
H          3.92738        0.16913       -0.00000
H          1.80994        1.17178       -0.87894
H          1.80994        1.17178        0.87894
H          0.39797       -0.91834        0.88047
H          0.39797       -0.91834       -0.88047
H         -0.77450        1.30473        0.88818
H         -0.77450        1.30473       -0.88818
