27
/scratch/dz1061/gcn/chemGraph/data/deepchem/freesol/split/QM_opt/gjf/259.log	Energy: -292347.4261668
C          3.48022        0.57708       -0.15929
C          1.98030        0.43889       -0.20265
C          1.15103        1.49178       -0.23285
C         -0.35477        1.40632       -0.24861
C         -0.87830        0.01204        0.17093
C         -0.04600       -1.05896       -0.54681
C          1.43961       -0.97862       -0.16720
O          1.70638       -1.58689        1.11034
C         -2.38451       -0.10349       -0.01160
C         -2.95562       -0.88754       -0.93225
C         -3.22516        0.73565        0.92381
H          3.79144        1.62409       -0.08556
H          3.89200        0.02819        0.69620
H          3.94246        0.14705       -1.05899
H          1.57548        2.49631       -0.25517
H         -0.76680        2.18500        0.40629
H         -0.72920        1.64016       -1.25823
H         -0.68322       -0.08792        1.25281
H         -0.13740       -0.92523       -1.63380
H         -0.40922       -2.06403       -0.30750
H          2.01200       -1.59998       -0.86733
H          1.36508       -0.98070        1.78724
H         -2.38140       -1.50732       -1.61338
H         -4.03680       -0.93700       -1.03602
H         -3.03204        1.80879        0.79555
H         -4.29406        0.56802        0.76076
H         -3.00014        0.50088        1.97346
