19
/scratch/dz1061/gcn/chemGraph/data/deepchem/freesol/split/QM_opt/gjf/29.log	Energy: -289349.8392774
C          2.92724        0.39641        0.00000
C          2.69740       -1.00219        0.00000
C          1.41455       -1.50063        0.00000
C          0.29142       -0.62732        0.00000
C         -1.03987       -1.11256        0.00000
C         -2.10444       -0.23545        0.00000
C         -1.87890        1.16556        0.00000
C         -0.59488        1.65855        0.00000
C          0.52622        0.78816        0.00000
C          1.86277        1.26885        0.00000
O         -3.37133       -0.75372       -0.00000
H          3.94552        0.77532       -0.00000
H          3.54366       -1.68420       -0.00000
H          1.24106       -2.57412        0.00000
H         -1.23274       -2.18134        0.00000
H         -2.72924        1.84575       -0.00000
H         -0.42727        2.73297        0.00000
H          2.03068        2.34367       -0.00000
H         -4.01012       -0.02455        0.00000
