14
/scratch/dz1061/gcn/chemGraph/data/deepchem/freesol/split/QM_opt/gjf/294.log	Energy: -180474.0217556
C          2.40410        0.01533       -0.00002
C          0.89531        0.01962        0.00001
C          0.15773        1.20973        0.00001
C         -1.23347        1.15502        0.00002
C         -1.85149       -0.09703       -0.00003
N         -1.17348       -1.24970        0.00001
C          0.16273       -1.17403        0.00002
H          2.80646        0.52802       -0.88241
H          2.79747       -1.00612       -0.00023
H          2.80655        0.52765        0.88254
H          0.67084        2.16939        0.00001
H         -1.83042        2.06262        0.00004
H         -2.93746       -0.17791       -0.00010
H          0.69140       -2.12766        0.00004
