26
/scratch/dz1061/gcn/chemGraph/data/deepchem/freesol/split/QM_opt/gjf/31.log	Energy: -431942.9506911
C         -3.01512       -0.11729       -0.35690
C         -1.65342       -0.12878        0.34674
C         -0.64754        0.79772       -0.33543
C          0.68204        0.95661        0.41611
C          1.60468       -0.26677        0.52529
C          1.91644       -0.94134       -0.81022
O          3.03674       -1.80191       -0.55753
O          2.81978        0.25249        1.08298
O          1.37267        2.00174       -0.27458
O         -1.26814        2.07622       -0.41986
O         -1.14037       -1.45432        0.32983
O         -3.83034       -1.17588        0.16578
H         -3.50110        0.85905       -0.26632
H         -2.88434       -0.34680       -1.41905
H         -1.79403        0.21573        1.38793
H         -0.44607        0.40514       -1.34553
H          0.45222        1.28848        1.44176
H          1.16136       -1.00615        1.20230
H          1.04645       -1.51393       -1.15123
H          2.17168       -0.17732       -1.55715
H          3.40383       -2.08351       -1.40781
H          3.50280       -0.39883        0.83971
H          2.27162        1.98952        0.10329
H         -0.54651        2.69954       -0.61492
H         -1.92574       -2.02494        0.42555
H         -4.15747       -0.89363        1.03494
