19
/scratch/dz1061/gcn/chemGraph/data/deepchem/freesol/split/QM_opt/gjf/348.log	Energy: -242273.0589754
C         -2.57695       -0.31672       -0.32022
C         -2.10648        0.99325       -0.43508
C         -0.80356        1.30666       -0.04741
C          0.05366        0.32271        0.46625
C         -0.43271       -0.98965        0.57729
C         -1.73584       -1.30756        0.18767
C          1.48567        0.64748        0.83048
C          2.46204        0.37976       -0.33224
O          2.49117       -0.98266       -0.72780
H         -3.59264       -0.56127       -0.61923
H         -2.75622        1.77308       -0.82402
H         -0.44620        2.33038       -0.13801
H          0.21357       -1.76266        0.98667
H         -2.09446       -2.32881        0.28764
H          1.80371        0.04334        1.68854
H          1.57305        1.70219        1.12194
H          3.48264        0.62024       -0.01707
H          2.21178        1.03636       -1.18153
H          1.60046       -1.20713       -1.04299
