24
/scratch/dz1061/gcn/chemGraph/data/deepchem/freesol/split/QM_opt/gjf/362.log	Energy: -291491.8480042
C          2.79139       -1.53897        0.79290
C          2.35953       -0.82793       -0.50375
C          1.25541        0.18979       -0.29518
C          1.57406        1.53104       -0.19816
C          0.59047        2.52048        0.03416
C         -0.72942        2.16239        0.16677
C         -1.11756        0.79962        0.06902
C         -0.11841       -0.20545       -0.16450
C         -0.54673       -1.55934       -0.26329
C         -1.87483       -1.90307       -0.13710
C         -2.85371       -0.90914        0.09661
C         -2.47852        0.41085        0.19514
H          3.15885       -0.81408        1.52754
H          3.59415       -2.25818        0.59296
H          1.95691       -2.07966        1.25173
H          3.22962       -0.31606       -0.93189
H          2.05538       -1.57615       -1.24633
H          2.61310        1.83577       -0.30358
H          0.88667        3.56380        0.10409
H         -1.49480        2.91417        0.34470
H          0.18629       -2.33878       -0.44336
H         -2.17399       -2.94474       -0.21826
H         -3.89858       -1.19100        0.19508
H         -3.22365        1.18337        0.37159
