30
/scratch/dz1061/gcn/chemGraph/data/deepchem/freesol/split/QM_opt/gjf/397.log	Energy: -246690.6709159
C          5.04164       -0.01485        0.16417
C          3.67581        0.52394       -0.27352
C          2.50529       -0.36786        0.15998
C          1.13336        0.16351       -0.27479
C         -0.03314       -0.73346        0.16303
C         -1.41389       -0.25626       -0.30192
C         -2.57201       -1.19671        0.08191
C         -3.84247       -0.35873       -0.16278
C         -3.41966        1.11827        0.09809
C         -1.87949        1.09376        0.28552
H          5.22946       -1.00952       -0.25886
H          5.85553        0.64376       -0.16019
H          5.10093       -0.10468        1.25596
H          3.53229        1.53396        0.13634
H          3.65972        0.63577       -1.36713
H          2.52189       -0.47970        1.25460
H          2.64981       -1.37925       -0.24893
H          1.11677        0.27056       -1.36995
H          0.99407        1.17540        0.13121
H          0.13955       -1.75160       -0.21655
H         -0.03660       -0.81548        1.26105
H         -1.39965       -0.16786       -1.40072
H         -2.56403       -2.13761       -0.48082
H         -2.48585       -1.45624        1.14717
H         -4.67876       -0.67442        0.47011
H         -4.17192       -0.47839       -1.20196
H         -3.91831        1.53459        0.97999
H         -3.70237        1.75527       -0.74736
H         -1.62793        1.11997        1.35537
H         -1.38722        1.95566       -0.17736
