19
/scratch/dz1061/gcn/chemGraph/data/deepchem/freesol/split/QM_opt/gjf/411.log	Energy: -195209.7109372
C          3.60083        0.04366        0.00000
C          2.20627       -0.59040       -0.00000
C          1.07248        0.44312        0.00000
C         -0.32391       -0.19054       -0.00000
C         -1.45092        0.84332        0.00000
C         -2.84163        0.25090       -0.00000
O         -3.08933       -0.93502        0.00000
H          4.38700       -0.71981       -0.00000
H          3.74968        0.67493        0.88480
H          3.74968        0.67493       -0.88480
H          2.09978       -1.24299       -0.87794
H          2.09978       -1.24299        0.87794
H          1.17945        1.09717        0.87862
H          1.17945        1.09717       -0.87862
H         -0.43876       -0.84320       -0.87461
H         -0.43876       -0.84320        0.87461
H         -1.38192        1.51404       -0.87200
H         -1.38192        1.51404        0.87200
H         -3.66752        0.99967        0.00000
