12
/scratch/dz1061/gcn/chemGraph/data/deepchem/freesol/split/QM_opt/gjf/419.log	Energy: -1299331.9762806
C          1.16818       -1.21286        0.00000
C          1.85017        0.00000        0.00000
C          1.16818        1.21286        0.00000
C         -0.22606        1.20571        0.00000
C         -0.94792       -0.00000        0.00000
C         -0.22606       -1.20571        0.00000
Cl        -1.05079       -2.74260        0.00000
Cl        -2.68322       -0.00000       -0.00000
Cl        -1.05079        2.74260       -0.00000
Cl         3.60079        0.00000       -0.00000
H          1.70458       -2.15359       -0.00000
H          1.70458        2.15359        0.00000
