4
/scratch/dz1061/gcn/chemGraph/data/deepchem/freesol/split/QM_opt/gjf/45.log	Energy:  -35484.3724318
N         -0.00000       -0.00002       -0.11900
H          0.81284       -0.46964        0.27768
H         -0.81322       -0.46899        0.27768
H          0.00037        0.93876        0.27763
