12
/scratch/dz1061/gcn/chemGraph/data/deepchem/freesol/split/QM_opt/gjf/471.log	Energy: -1759130.9884431
C          2.88181        0.00000        0.00000
C          2.18119        1.20769        0.00000
C          0.78529        1.21568       -0.00000
C          0.10389       -0.00000       -0.00000
C          0.78529       -1.21568       -0.00000
C          2.18119       -1.20769        0.00000
Br        -1.81092        0.00000        0.00000
H          3.96794        0.00000        0.00000
H          2.71779        2.15244       -0.00000
H          0.23346        2.14948       -0.00000
H          0.23346       -2.14948       -0.00000
H          2.71779       -2.15244        0.00000
