17
/scratch/dz1061/gcn/chemGraph/data/deepchem/freesol/split/QM_opt/gjf/477.log	Energy: -412504.4164897
C         -3.71524        0.14815        0.00000
C         -2.36144       -0.56849       -0.00000
C         -1.16932        0.39815        0.00000
C          0.18696       -0.32399        0.00000
C          1.34796        0.66107       -0.00000
Cl         2.95948       -0.18833        0.00000
H         -3.82649        0.78676        0.88491
H         -3.82649        0.78676       -0.88491
H         -4.54467       -0.56786       -0.00000
H         -2.29331       -1.22557        0.87822
H         -2.29331       -1.22557       -0.87822
H         -1.23646        1.05556        0.87934
H         -1.23646        1.05556       -0.87934
H          0.26522       -0.97378        0.88044
H          0.26522       -0.97378       -0.88044
H          1.34110        1.29707        0.88818
H          1.34110        1.29707       -0.88818
