12
/scratch/dz1061/gcn/chemGraph/data/deepchem/freesol/split/QM_opt/gjf/480.log	Energy: -226291.8458842
C          2.70679        0.09794       -0.00005
O          1.48015       -0.65926        0.00001
C          0.35174        0.07437        0.00008
O          0.30663        1.27909        0.00003
C         -0.85299       -0.87076        0.00002
C         -2.13413       -0.16827       -0.00002
N         -3.16894        0.35439       -0.00004
H          2.76418        0.72856        0.89056
H          2.76409        0.72859       -0.89064
H          3.50478       -0.64406       -0.00010
H         -0.78660       -1.52610        0.87687
H         -0.78654       -1.52608       -0.87685
