21
/scratch/dz1061/gcn/chemGraph/data/deepchem/freesol/split/QM_opt/gjf/515.log	Energy: -195967.1076694
C          2.80585       -0.02318       -0.22350
C          1.42905        0.64773       -0.25781
C          0.27348       -0.35427       -0.21315
C         -1.11852        0.27400       -0.46822
C         -1.48325        1.35286        0.56213
C         -2.20505       -0.81236       -0.52477
O          0.34252       -0.99828        1.06563
H          2.95060       -0.67657       -1.09328
H          2.91232       -0.63418        0.67758
H          3.60875        0.72261       -0.23032
H          1.33385        1.33133        0.59449
H          1.32831        1.25531       -1.16736
H          0.44445       -1.10403       -1.00694
H         -1.06682        0.74154       -1.46329
H         -0.80778        2.21313        0.51096
H         -2.50172        1.72199        0.39419
H         -1.43067        0.94420        1.57705
H         -1.95721       -1.59549       -1.25290
H         -3.17281       -0.38622       -0.81149
H         -2.34442       -1.28864        0.45493
H         -0.24632       -1.76737        1.04329
