29
/scratch/dz1061/gcn/chemGraph/data/deepchem/freesol/split/QM_opt/gjf/518.log	Energy: -222782.5703879
C          5.12822        0.36829        0.00000
C          3.85125       -0.47859       -0.00000
C          2.56739        0.36146       -0.00000
C          1.28366       -0.47878       -0.00000
C          0.00000        0.36178       -0.00000
C         -1.28366       -0.47878        0.00000
C         -2.56739        0.36146        0.00000
C         -3.85125       -0.47859        0.00000
C         -5.12822        0.36829       -0.00000
H          5.17451        1.01543       -0.88466
H          5.17451        1.01543        0.88466
H          6.02629       -0.26014        0.00000
H          3.85077       -1.14001       -0.87812
H          3.85077       -1.14001        0.87812
H          2.56846        1.02389        0.87858
H          2.56846        1.02389       -0.87858
H          1.28365       -1.14104       -0.87858
H          1.28365       -1.14104        0.87858
H         -0.00000        1.02402       -0.87854
H          0.00000        1.02402        0.87854
H         -1.28365       -1.14104        0.87858
H         -1.28365       -1.14104       -0.87858
H         -2.56846        1.02389       -0.87858
H         -2.56846        1.02389        0.87858
H         -3.85077       -1.14001        0.87812
H         -3.85077       -1.14001       -0.87812
H         -6.02629       -0.26014       -0.00000
H         -5.17451        1.01543        0.88466
H         -5.17451        1.01543       -0.88466
