21
/scratch/dz1061/gcn/chemGraph/data/deepchem/freesol/split/QM_opt/gjf/526.log	Energy: -398638.7743618
C         -1.74624        1.06394       -1.08692
C         -1.44308        0.27640        0.19034
C         -2.63821       -0.57972        0.62490
S         -0.00002       -0.87030        0.00004
C          1.44305        0.27640       -0.19028
C          1.74642        1.06370        1.08707
C          2.63808       -0.57968       -0.62517
H         -1.99303        0.38556       -1.91089
H         -0.89914        1.68286       -1.40038
H         -2.60130        1.73342       -0.92379
H         -1.20235        0.97424        1.00088
H         -2.43522       -1.10399        1.56390
H         -2.88375       -1.32764       -0.13819
H         -3.52086        0.05513        0.76833
H          1.20221        0.97439       -1.00066
H          2.60148        1.73318        0.92393
H          0.89940        1.68260        1.40077
H          1.99332        0.38517        1.91088
H          2.43493       -1.10378       -1.56423
H          3.52073        0.05517       -0.76863
H          2.88373       -1.32774        0.13775
