3
/scratch/dz1061/gcn/chemGraph/data/deepchem/freesol/split/QM_opt/gjf/540.log	Energy: -250618.1409417
S          0.00000        0.10345        0.00000
H          0.97719       -0.82758        0.00000
H         -0.97719       -0.82758        0.00000
