29
/scratch/dz1061/gcn/chemGraph/data/deepchem/freesol/split/QM_opt/gjf/571.log	Energy: -222780.7228181
C          3.26923       -1.02736        0.05723
C          2.21015        0.00255       -0.36438
C          2.61563        1.40905        0.10294
C          0.81614       -0.41736        0.14904
C         -0.34246        0.44185       -0.38043
C         -1.78169       -0.00434       -0.00325
C         -2.09974       -1.39819       -0.57959
C         -1.96807       -0.02505        1.52664
C         -2.76639        1.01585       -0.60943
H          4.25904       -0.76439       -0.33477
H          3.34984       -1.08147        1.15099
H          3.01936       -2.03101       -0.30741
H          2.17060        0.01117       -1.46505
H          3.61581        1.66962       -0.26348
H          2.64029        1.46305        1.19966
H          1.92369        2.17933       -0.25361
H          0.82969       -0.39676        1.24833
H          0.65323       -1.46569       -0.13468
H         -0.27555        0.48066       -1.47857
H         -0.21327        1.47633       -0.03374
H         -3.14181       -1.67300       -0.37460
H         -1.95858       -1.41823       -1.66768
H         -1.46475       -2.17780       -0.14444
H         -1.72810        0.95054        1.96822
H         -1.33019       -0.77603        2.00585
H         -3.00707       -0.26146        1.78751
H         -2.66865        1.06110       -1.70135
H         -2.58571        2.02401       -0.21598
H         -3.80471        0.74796       -0.37785
