14
/scratch/dz1061/gcn/chemGraph/data/deepchem/freesol/split/QM_opt/gjf/60.log	Energy:  -99433.9213982
C          0.70496        1.83575        0.00000
C          0.70496        0.30293        0.00000
C         -0.70496       -0.30293        0.00000
C         -0.70496       -1.83575        0.00000
H          0.19152        2.23181        0.88488
H          0.19152        2.23181       -0.88488
H          1.72500        2.23698        0.00000
H          1.25513       -0.06336       -0.87849
H          1.25513       -0.06336        0.87849
H         -1.25513        0.06336       -0.87849
H         -1.25513        0.06336        0.87849
H         -0.19152       -2.23181        0.88488
H         -0.19152       -2.23181       -0.88488
H         -1.72500       -2.23698        0.00000
